5
Properties=species:S:1:pos:R:3:forces:R:3 dipole_x_D=-0.480939566 dipole_y_D=2.62792962 dipole_z_D=-0.09698362 dipole_mag_D=2.6733355151132674 dipole_x_eA=-0.10012889552325643 dipole_y_eA=0.5471200728023509 dipole_z_eA=-0.020191440756710803 status_dipole=OK Q_xx_B=-30.072000265 Q_yy_B=-1.204463095 Q_zz_B=-31.034267377 Q_xy_B=-5.46989955 Q_xz_B=0.198786811 Q_yz_B=-1.085487355 Q_isotropic_B=-20.770243579 Q_xx_eAA=-6.260820037147498 Q_yy_eAA=-0.25076239068664063 Q_zz_eAA=-6.461158596698175 Q_xy_eAA=-1.1388020883892502 Q_xz_eAA=0.04138628752534207 Q_yz_eAA=-0.22599231585415921 Q_isotropic_eAA=-4.324247008177438 status_quadrupole=OK total_charge_e=1 multiplicity=1 natoms=5 geom_sha1=c0ad63890898ae51efabb0f83718ce8fb6eab7a3 R_cog_x=0.32049 R_cog_y=-0.260428 R_cog_z=0.053878 R_com_x=0.557740966997525 R_com_y=-1.5556885754640373 R_com_z=0.1011430022741779 R_cnc_x=0.5426010169491525 R_cnc_y=-1.4730405084745763 R_cnc_z=0.09812118644067795 status_eigs=OK spin_case=RKS homo_eV=-19.1842 lumo_eV=-7.6401 gap_eV=11.5441 n_orb_a=180 n_orb_b=0 argonne_rel=noble_gas_compounds/HCNKrF+_step25_1_1/ data_id=orca.tar.zst energy=-80175.9532076234 free_energy=-80175.9532076234 dipole="-0.2545022579856644 1.3906404658696951 -0.05132152150198356" pbc="F F F"
N        0.21916000       0.29414000       0.02881000       0.00166068      -0.00267791      -0.00004469
C        0.01439000       1.41231000      -0.00907000      -0.00035507      -0.00166366      -0.00254478
Kr       0.61622000      -1.87444000       0.11227000      -0.00141184       0.00222586       0.00567787
H       -0.17937000       2.46938000      -0.04547000      -0.00039605       0.00373818       0.00011976
F        0.93205000      -3.60353000       0.18285000       0.00050229      -0.00162252      -0.00320812
9
Properties=species:S:1:pos:R:3:forces:R:3 dipole_x_D=-0.175463405 dipole_y_D=0.019440688 dipole_z_D=0.000921866 dipole_mag_D=0.17653950459041545 dipole_x_eA=-0.036530487798127696 dipole_y_eA=0.00404744120730592 dipole_z_eA=0.00019192728343844 status_dipole=OK Q_xx_B=-53.46013648 Q_yy_B=-46.465998699 Q_zz_B=-55.10745592 Q_xy_B=3.020812428 Q_xz_B=0.310061279 Q_yz_B=0.006763503 Q_isotropic_B=-51.677863699666666 Q_xx_eAA=-11.130097456542568 Q_yy_eAA=-9.673957606317172 Q_zz_eAA=-11.473060028591302 Q_xy_eAA=0.6289160285655706 Q_xz_eAA=0.06455300117053192 Q_yz_eAA=0.001408122995828499 Q_isotropic_eAA=-10.759038363817014 status_quadrupole=OK total_charge_e=0 multiplicity=1 natoms=9 geom_sha1=57466091363a847ac5b810d21e6095d3ca680ff9 R_cog_x=-0.28435000000000005 R_cog_y=-0.10068777777777778 R_cog_z=-5.222222222222896e-05 R_com_x=-0.24794131591754007 R_com_y=-0.12793122606248217 R_com_z=0.0037162292984683452 R_cnc_x=-0.25003577777777786 R_cnc_y=-0.12569000000000002 R_cnc_z=0.0033509999999999955 status_eigs=OK spin_case=RKS homo_eV=-9.9857 lumo_eV=-0.0305 gap_eV=9.9552 n_orb_a=255 n_orb_b=0 argonne_rel=noble_gas_compounds/H4XeO4_step24_0_1/ data_id=orca.tar.zst energy=-17207.918192315254 free_energy=-17207.918192315254 dipole="-0.09285123521393353 0.01028756904728194 0.000487830478393646" pbc="F F F"
Xe      -0.24602000      -0.13711000       0.00562000       0.12894927       0.36170344      -0.02407314
O        1.64073000      -0.87128000       0.00520000       0.01679897      -0.00668060       0.01091994
O       -2.01636000       0.85563000      -0.01532000      -0.03233070      -0.04149432       0.00777106
O       -0.31537000      -0.21089000       2.02779000      -0.10766835      -0.31479828       0.03085262
O       -0.29543000      -0.22190000      -2.01707000      -0.08852551      -0.25924024      -0.01706971
H        1.62507000      -1.83729000      -0.00544000       0.00004407       0.00236922       0.00107426
H       -2.74715000       0.22280000      -0.02272000       0.00334547       0.03975903      -0.00038695
H       -0.07739000       0.64139000       2.40881000       0.04890429       0.13034574      -0.01361543
H       -0.12723000       0.65246000      -2.38734000       0.03048249       0.08803602       0.00452735
7
Properties=species:S:1:pos:R:3:forces:R:3 dipole_x_D=-0.133543123 dipole_y_D=0.133557444 dipole_z_D=-6.58e-07 dipole_mag_D=0.18886862245709113 dipole_x_eA=-0.027802922354523824 dipole_y_eA=0.02780590390566696 dipole_z_eA=-1.3699187572e-07 status_dipole=OK Q_xx_B=-60.76308372 Q_yy_B=-60.76296433 Q_zz_B=-58.9625187 Q_xy_B=-0.355733888 Q_xz_B=-8.8e-08 Q_yz_B=-9.88e-07 Q_isotropic_B=-60.16285558333333 Q_xx_eAA=-12.650529686108559 Q_yy_eAA=-12.650504829787144 Q_zz_eAA=-12.275662252746526 Q_xy_eAA=-0.0740617795376567 Q_xz_eAA=-1.8321101304e-08 Q_yz_eAA=-2.0569600100399998e-07 Q_isotropic_eAA=-12.52556558954741 status_quadrupole=OK total_charge_e=0 multiplicity=1 natoms=7 geom_sha1=b19a9a186b55474ddba8308730e444d0f9fe41bd R_cog_x=0.001427142857142858 R_cog_y=-0.001428571428571407 R_cog_z=0.0 R_com_x=0.03953591085964443 R_com_y=-0.03953670482641695 R_com_z=0.0 R_cnc_x=0.03932311320754717 R_cnc_y=-0.039323962264150934 R_cnc_z=0.0 status_eigs=OK spin_case=RKS homo_eV=-13.2395 lumo_eV=-4.2806 gap_eV=8.9589 n_orb_a=299 n_orb_b=0 argonne_rel=noble_gas_compounds/O2XeF4_step3_0_1/ data_id=orca.tar.zst energy=-23911.901651077937 free_energy=-23911.901651077937 dipole="-0.07066797731912394 0.07067555566595642 -3.4819860455100745e-07" pbc="F F F"
Xe       0.13061000      -0.13061000      -0.00000000       0.08672378      -0.08682662       0.00001615
O        1.86055000       0.06144000       0.00000000      -0.72279361       0.07088337      -0.00000473
F       -0.07840000       1.74930000       0.00000000       0.10291947      -0.67948677      -0.00000159
F       -1.74931000       0.07840000      -0.00000000       0.67965888      -0.10292985      -0.00000710
O       -0.06144000      -1.86055000       0.00000000      -0.07086604       0.72275459      -0.00000812
F       -0.04601000       0.04601000       1.86899000      -0.03782222       0.03780915      -0.89814960
F       -0.04601000       0.04601000      -1.86899000      -0.03782021       0.03779614       0.89815495
14
Properties=species:S:1:pos:R:3:forces:R:3 dipole_x_D=1.523772696 dipole_y_D=-1.389345753 dipole_z_D=-9.833e-06 dipole_mag_D=2.0620777993448582 dipole_x_eA=0.31724085075374064 dipole_y_eA=-0.289253922077638 dipole_z_eA=-2.04717494522e-06 status_dipole=OK Q_xx_B=-122.661601273 Q_yy_B=-120.102799196 Q_zz_B=-92.784346272 Q_xy_B=20.026422658 Q_xz_B=9.5359e-05 Q_yz_B=-6.0679e-05 Q_isotropic_B=-111.849582247 Q_xx_eAA=-25.537450261744187 Q_yy_eAA=-25.004722170044158 Q_zz_eAA=-19.317175084940075 Q_xy_eAA=4.169387707658397 Q_xz_eAA=1.9853203400547003e-05 Q_yz_eAA=-1.2633023932107e-05 Q_isotropic_eAA=-23.286449172242808 status_quadrupole=OK total_charge_e=0 multiplicity=1 natoms=14 geom_sha1=76e488239dbc6c0fe7a93e9db1e54b768fdb82aa R_cog_x=-0.6191457142857143 R_cog_y=0.445105 R_cog_z=0.0 R_com_x=-1.1922341642153218 R_com_y=1.045467760914498 R_com_z=-3.677354931706273e-06 R_cnc_x=-1.1235081756756755 R_cnc_y=0.9732689864864865 R_cnc_z=-3.243243243243243e-06 status_eigs=OK spin_case=RKS homo_eV=-10.4015 lumo_eV=-0.5722 gap_eV=9.8293 n_orb_a=555 n_orb_b=0 argonne_rel=noble_gas_compounds/XeC6F5CN_step9_0_1/ data_id=orca.tar.zst energy=-31292.42373806038 free_energy=-31292.42373806038 dipole="0.8063457848026239 -0.7352101100812594 -5.20339951147425e-06" pbc="F F F"
C        1.42539000       0.08801000      -0.00001000       0.01616761       0.01453080       0.00012341
C        0.45028000       1.06986000       0.00001000       0.00684973       0.01426032      -0.00009904
C       -0.88913000       0.74733000      -0.00000000      -0.02611099      -0.04706605       0.00003183
C       -1.25209000      -0.58265000       0.00001000      -0.01227661       0.00031815      -0.00007307
C       -0.30086000      -1.58759000      -0.00001000       0.01543577       0.00809928       0.00016800
C        1.04233000      -1.24379000       0.00001000      -0.01036803      -0.00595087      -0.00017746
F        2.71569000       0.40733000      -0.00001000      -0.00174105      -0.00631154      -0.00001203
F        0.82992000       2.35329000       0.00000000       0.00484180      -0.00094077       0.00001450
Xe      -2.42114000       2.32643000      -0.00001000       0.05233445       0.05756330       0.00002926
F       -2.54663000      -0.92266000       0.00001000       0.00563858      -0.00132263      -0.00000242
F       -0.65711000      -2.86793000      -0.00000000      -0.00350225       0.00174876      -0.00002669
F        1.96621000      -2.19477000       0.00000000      -0.00316122      -0.00103163       0.00003435
N       -4.98049000       4.66057000      -0.00000000       0.02280471       0.07691147       0.00000118
C       -4.05041000       3.97804000       0.00000000      -0.06691250      -0.11080864      -0.00001183
11
Properties=species:S:1:pos:R:3:forces:R:3 dipole_x_D=0.848505149 dipole_y_D=-0.611631519 dipole_z_D=0.445816392 dipole_mag_D=1.1370164283288333 dipole_x_eA=0.17665396948265666 dipole_y_eA=-0.12733822042140247 dipole_z_eA=0.09281644949362128 status_dipole=OK Q_xx_B=-108.875738052 Q_yy_B=-96.252774198 Q_zz_B=-97.113091892 Q_xy_B=1.087774308 Q_xz_B=-0.835081281 Q_yz_B=-1.299195006 Q_isotropic_B=-100.74720138066668 Q_xx_eAA=-22.66731166361886 Q_yy_eAA=-20.03928212355222 Q_zz_eAA=-20.21839539202265 Q_xy_eAA=0.22646844650859657 Q_xz_eAA=-0.17385919029858057 Q_yz_eAA=-0.270485037711101 Q_isotropic_eAA=-20.97499639306458 status_quadrupole=OK total_charge_e=0 multiplicity=1 natoms=11 geom_sha1=8dc85a4ebb860e882bcf9300ec51264e087292fd R_cog_x=-1.765329090909091 R_cog_y=0.4344254545454545 R_cog_z=-0.31603363636363635 R_com_x=-1.0554323947819773 R_com_y=0.3541470469991178 R_com_z=-0.256487814580676 R_cnc_x=-1.1689847368421054 R_cnc_y=0.37073809210526315 R_cnc_z=-0.26876986842105266 status_eigs=OK spin_case=RKS homo_eV=-12.0779 lumo_eV=-2.0469 gap_eV=10.030999999999999 n_orb_a=468 n_orb_b=0 argonne_rel=noble_gas_compounds/FXeNSO2F2_step7_0_1/ data_id=orca.tar.zst energy=-48460.12918324039 free_energy=-48460.12918324039 dipole="0.4490095878968764 -0.323661461117345 0.23591587474219594" pbc="F F F"
Xe       0.38020000       0.21772000      -0.15495000      -0.02417896      -0.02045518       0.02715810
F        2.34456000       0.17986000      -0.11472000       0.01808293      -0.00111920      -0.00765135
N       -1.83233000       0.21291000      -0.15685000       0.01136849       0.22586259      -0.16887603
O       -3.88545000      -0.16132000      -1.60699000       0.03693385       0.02418040       0.05980484
O       -3.88882000       1.46503000       0.65763000       0.03690140      -0.04885909      -0.03801099
S       -2.48289000      -0.27844000      -1.58746000       0.13871529      -0.24254642      -0.15718127
F       -2.13717000      -1.79531000      -1.40334000      -0.08780143       0.09024526      -0.01616993
S       -2.48507000       1.42213000       0.75129000       0.13709930       0.06653491       0.26018656
F       -2.12196000       0.78647000       2.13621000      -0.08712389       0.04576934      -0.07057216
O       -1.66086000       2.57325000       0.65309000      -0.08994856      -0.12827543      -0.02464891
O       -1.64883000       0.15638000      -2.65028000      -0.09004837      -0.01133713       0.13596118
14
Properties=species:S:1:pos:R:3:forces:R:3 dipole_x_D=-0.346685981 dipole_y_D=0.65465891 dipole_z_D=0.156931202 dipole_mag_D=0.7572297273783466 dipole_x_eA=-0.07217805900154754 dipole_y_eA=0.1362962796925694 dipole_z_eA=0.03267218802579668 status_dipole=OK Q_xx_B=-88.062979996 Q_yy_B=-75.065233092 Q_zz_B=-88.001549348 Q_xy_B=-12.156227318 Q_xz_B=0.622706934 Q_yz_B=1.558188871 Q_isotropic_B=-83.709920812 Q_xx_eAA=-18.334213382259563 Q_yy_eAA=-15.628156135078468 Q_zz_eAA=-18.321423869473445 Q_xy_eAA=-2.530857638267389 Q_xz_eAA=0.12964405477860502 Q_yz_eAA=0.32440609268586806 Q_isotropic_eAA=-17.427931128937157 status_quadrupole=OK total_charge_e=1 multiplicity=1 natoms=14 geom_sha1=f78721072b7d423687345491ef0224113d9bf04e R_cog_x=-0.36858142857142856 R_cog_y=0.5904785714285714 R_cog_z=-2.14285714285862e-06 R_com_x=-0.9185583438839275 R_com_y=1.509021150809411 R_com_z=0.018063423349425064 R_cnc_x=-0.8554619607843136 R_cnc_y=1.403532156862745 R_cnc_z=0.015822156862745098 status_eigs=OK spin_case=RKS homo_eV=-14.4523 lumo_eV=-7.4278 gap_eV=7.024499999999999 n_orb_a=561 n_orb_b=0 argonne_rel=noble_gas_compounds/XeC6F5F2+_step11_1_1/ data_id=orca.tar.zst energy=-34189.36831039603 free_energy=-34189.36831039603 dipole="-0.18345832036716883 0.3464305758645647 0.08304441572479068" pbc="F F F"
C        1.31629000       0.10522000       0.06516000       0.01669279       0.02661452      -0.03335909
C        0.64187000       1.31843000       0.07355000       0.00095707      -0.05888259       0.06934554
C       -0.75349000       1.27621000       0.02680000      -0.03417665       0.12318624      -0.06598752
C       -1.47349000       0.08416000      -0.04929000      -0.06590550      -0.06127361      -0.07922135
C       -0.75289000      -1.10146000      -0.05233000      -0.04049015      -0.03276475       0.02418796
C        0.63070000      -1.09695000       0.00539000      -0.00268310      -0.00049149      -0.00030180
F        2.62897000       0.11848000       0.11860000       0.03372737      -0.00623739       0.00562557
F        1.36776000       2.40625000       0.14085000      -0.24561905       0.31326164       0.09172817
F       -2.77812000       0.00088000      -0.14186000       0.04363635      -0.01324751      -0.08124501
F       -1.41251000      -2.23548000      -0.12406000      -0.00249217      -0.03231178      -0.00673526
F        1.28937000      -2.22494000      -0.00192000       0.01640996      -0.02889745       0.00048568
F       -3.56612000       2.21870000       0.35448000       0.42542134       0.16666571       0.43709163
F       -0.39587000       4.23949000      -0.47382000       0.10576403      -0.43903734       0.26723796
Xe      -1.90261000       3.15771000       0.05842000      -0.25124231       0.04341581      -0.62885244
23
Properties=species:S:1:pos:R:3:forces:R:3 dipole_x_D=0.212118087 dipole_y_D=0.33054848 dipole_z_D=-0.001902591 dipole_mag_D=0.3927594687787466 dipole_x_eA=0.04416178512502758 dipole_y_eA=0.0688183226316032 dipole_z_eA=-0.00039610867753494 status_dipole=OK Q_xx_B=-163.403743789 Q_yy_B=-148.816000186 Q_zz_B=-147.899674769 Q_xy_B=5.482465592 Q_xz_B=0.263360934 Q_yz_B=1.550484209 Q_isotropic_B=-153.37313958133333 Q_xx_eAA=-34.01973344785375 Q_yy_eAA=-30.982647898452147 Q_zz_eAA=-30.791874139448886 Q_xy_eAA=1.1414182671218902 Q_xz_eAA=0.05483025399238702 Q_yz_eAA=0.3228020257197876 Q_isotropic_eAA=-31.931418495251595 status_quadrupole=OK total_charge_e=0 multiplicity=1 natoms=23 geom_sha1=baff77b0512faff89348ef700287599fc84b166f R_cog_x=-2.5907465217391303 R_cog_y=1.1778547826086956 R_cog_z=0.001007826086956508 R_com_x=-2.5079942146035075 R_com_y=1.3433946043922202 R_com_z=-0.003367827922850838 R_cnc_x=-2.5194333333333336 R_cnc_y=1.3203804166666668 R_cnc_z=-0.002774583333333346 status_eigs=OK spin_case=RKS homo_eV=-9.4887 lumo_eV=-0.3884 gap_eV=9.100299999999999 n_orb_a=903 n_orb_b=0 argonne_rel=noble_gas_compounds/XeC6F52_step4_0_1/ data_id=orca.tar.zst energy=-48573.968796798436 free_energy=-48573.968796798436 dipole="0.11224805758879818 0.17491872260251762 -0.0010068077982238691" pbc="F F F"
C        1.92563000       0.04475000      -0.02134000       0.11730525      -0.11569384       0.00235760
C        0.90583000       0.96246000      -0.02337000      -0.11797513       0.25047427      -0.00005230
C       -0.40497000       0.57737000      -0.01522000       0.13869473       0.45724070      -0.02115689
C       -0.68808000      -0.75933000      -0.00386000      -0.09973104       0.09088799      -0.00071307
C        0.30228000      -1.70696000      -0.00132000       0.05222996      -0.14661167      -0.00088662
C        1.61448000      -1.29818000      -0.01044000       0.08195736       0.02549979      -0.00047257
F        3.19312000       0.42192000      -0.02938000       0.48374734       0.15515020      -0.00326031
F        1.21545000       2.26163000      -0.03310000       0.13028753       0.37724000      -0.00618165
Xe      -2.23844000       1.89143000      -0.01684000      -0.61966897      -0.59174880       0.02473180
F       -1.95641000      -1.17659000       0.00458000      -0.46417378      -0.21110728       0.00110686
F        0.00972000      -2.99590000       0.00857000      -0.08239918      -0.53595205       0.00559791
F        2.57954000      -2.19762000      -0.00865000       0.39328013      -0.33145780       0.00112033
C       -7.10031000       3.03175000       0.02734000       0.55159120      -0.12136544       0.01266711
C       -6.45352000       2.72693000       1.20814000      -0.75214009       0.12577663      -0.05372871
C       -5.12006000       2.49532000       1.17552000       0.96809040      -0.17727377       0.22104958
C       -4.42663000       2.57248000       0.00683000       1.18081223       0.24028704      -0.11477107
C       -5.08037000       2.84532000      -1.15756000       1.00244054      -0.10980262      -0.19696318
C       -6.41319000       3.08413000      -1.16801000      -0.73688449       0.10930424       0.00296690
F       -8.38154000       3.25549000       0.03795000      -1.51969440       0.26240717       0.02325311
F       -7.11792000       2.65306000       2.34788000      -0.49431802       0.03050907       0.40102934
F       -4.49589000       2.17523000       2.32394000       0.09595430       0.04482703       0.02927911
F       -4.41533000       2.87388000      -2.32675000       0.11335342       0.04225166      -0.00914002
F       -7.04056000       3.35209000      -2.30173000      -0.42275917       0.12915753      -0.31783332
11
Properties=species:S:1:pos:R:3:forces:R:3 dipole_x_D=0.869643564 dipole_y_D=-0.258242611 dipole_z_D=0.185597641 dipole_mag_D=0.9259674178325521 dipole_x_eA=0.18105486784222777 dipole_y_eA=-0.053764649957021744 dipole_z_eA=0.03864037837355194 status_dipole=OK Q_xx_B=-108.544491416 Q_yy_B=-95.545913563 Q_zz_B=-98.318252143 Q_xy_B=2.44197437 Q_xz_B=-1.837597501 Q_yz_B=-4.283089998 Q_isotropic_B=-100.80288570733335 Q_xx_eAA=-22.598347991178347 Q_yy_eAA=-19.892117745124438 Q_zz_eAA=-20.469302926637706 Q_xy_eAA=0.5084052251652452 Q_xz_eAA=-0.3825773860431619 Q_yz_eAA=-0.8917150653125815 Q_isotropic_eAA=-20.9865895543135 status_quadrupole=OK total_charge_e=0 multiplicity=1 natoms=11 geom_sha1=0fe94d3b919c41f1b3d64f8679f3475798425b9f R_cog_x=-1.7653272727272729 R_cog_y=0.43442454545454545 R_cog_z=-0.3160336363636364 R_com_x=-1.024587326896698 R_com_y=0.47835493424560427 R_com_z=-0.3480507698762202 R_cnc_x=-1.1409646710526316 R_cnc_y=0.4768967763157895 R_cnc_z=-0.3470017105263158 status_eigs=OK spin_case=RKS homo_eV=-12.3361 lumo_eV=-2.0435 gap_eV=10.2926 n_orb_a=468 n_orb_b=0 argonne_rel=noble_gas_compounds/FXeNSO2F2_step21_0_1/ data_id=orca.tar.zst energy=-48460.35998959329 free_energy=-48460.35998959329 dipole="0.46019555538231727 -0.13665610453770313 0.0982140419516092" pbc="F F F"
Xe       0.48482000       0.60036000      -0.43683000      -0.01967866      -0.05951713       0.06675155
F        2.44525000       0.51555000      -0.36544000       0.00389116       0.03631755      -0.03780304
N       -1.72097000       0.68507000      -0.49909000       0.02358087       0.01905095      -0.00927716
O       -3.78611000       0.06084000      -1.82075000       0.00394891       0.00658768      -0.00007292
O       -3.78513000       1.75757000       0.49620000      -0.00369668       0.00091192      -0.00560896
S       -2.46273000      -0.33313000      -1.54768000       0.00987597      -0.01574693      -0.03041199
F       -2.55864000      -1.62138000      -0.66617000      -0.00355069      -0.00180728       0.01281752
S       -2.46459000       1.37058000       0.79150000       0.01880299       0.01489060       0.01080465
F       -2.56857000       0.13369000       1.74284000      -0.00474821      -0.00721930      -0.00050383
O       -1.50145000       2.22876000       1.37558000      -0.01206747       0.00493786       0.00191074
O       -1.50048000      -0.61924000      -2.54653000      -0.01635823       0.00159408      -0.00860661
4
Properties=species:S:1:pos:R:3:forces:R:3 dipole_x_D=-9.5e-08 dipole_y_D=1.016711054 dipole_z_D=2.43e-07 dipole_mag_D=1.0167110540000335 dipole_x_eA=-1.97784623e-08 dipole_y_eA=0.21167348685823437 dipole_z_eA=5.059122462e-08 status_dipole=OK Q_xx_B=-50.86043813 Q_yy_B=-43.728871897 Q_zz_B=-39.876707677 Q_xy_B=3.159e-06 Q_xz_B=1.491e-06 Q_yz_B=5.11e-07 Q_isotropic_B=-44.822005901333334 Q_xx_eAA=-10.588854992563117 Q_yy_eAA=-9.10410331743836 Q_zz_eAA=-8.302104557048995 Q_xy_eAA=6.57685897947e-07 Q_xz_eAA=3.10417750503e-07 Q_yz_eAA=1.0638730416299999e-07 Q_isotropic_eAA=-9.331687622350158 status_quadrupole=OK total_charge_e=0 multiplicity=1 natoms=4 geom_sha1=9601477466cf151380f21d8f870dbd8131b6f147 R_cog_x=0.0 R_cog_y=-0.5099975 R_cog_z=0.0 R_com_x=0.0 R_com_y=-0.25956325812108555 R_com_z=0.0 R_cnc_x=0.0 R_cnc_y=-0.28112625 R_cnc_z=0.0 status_eigs=OK spin_case=RKS homo_eV=-11.2874 lumo_eV=-1.1225 gap_eV=10.1649 n_orb_a=179 n_orb_b=0 argonne_rel=noble_gas_compounds/OXeF2_step5_0_1/ data_id=orca.tar.zst energy=-16436.435772695066 free_energy=-16436.435772695066 dipole="-5.027183500356491e-08 0.5380203195051428 1.285900621670134e-07" pbc="F F F"
Xe       0.00000000      -0.13451000       0.00000000      -0.00000746       0.00826466      -0.00000653
F        1.94740000       0.00864000       0.00000000      -0.00087099      -0.00097959       0.00000668
F       -1.94740000       0.00864000       0.00000000       0.00087299      -0.00097810       0.00000159
O       -0.00000000      -1.92276000       0.00000000       0.00000540      -0.00630697      -0.00000175
8
Properties=species:S:1:pos:R:3:forces:R:3 dipole_x_D=-0.018212057 dipole_y_D=-0.158605429 dipole_z_D=0.176854634 dipole_mag_D=0.23825390384150946 dipole_x_eA=-0.0037916471871573803 dipole_y_eA=-0.03302075261107186 dipole_z_eA=0.036820133801571564 status_dipole=OK Q_xx_B=-77.954128698 Q_yy_B=-76.752073017 Q_zz_B=-73.391413627 Q_xy_B=-0.535084889 Q_xz_B=2.050415664 Q_yz_B=-4.351399093 Q_isotropic_B=-76.03253844733335 Q_xx_eAA=-16.22960782887627 Q_yy_eAA=-15.979346648141613 Q_zz_eAA=-15.279676408000377 Q_xy_eAA=-0.11140164156373403 Q_xz_eAA=0.42688492153923213 Q_yz_eAA=-0.9059366317839401 Q_isotropic_eAA=-15.829543628339424 status_quadrupole=OK total_charge_e=-1 multiplicity=1 natoms=8 geom_sha1=97a8933dcb23f0a5ba059388d2824d8260e72be9 R_cog_x=0.034506249999999995 R_cog_y=-0.14860125 R_cog_z=0.20277125000000001 R_com_x=0.027399187224631465 R_com_y=-0.10540490380330704 R_com_z=0.14565927382687358 R_cnc_x=0.028073076923076902 R_cnc_y=-0.10950076923076923 R_cnc_z=0.15107461538461536 status_eigs=OK spin_case=RKS homo_eV=-6.8603 lumo_eV=2.6407 gap_eV=9.501 n_orb_a=339 n_orb_b=0 argonne_rel=noble_gas_compounds/XeF7-_step2_-1_1/ data_id=orca.tar.zst energy=-27975.656959386928 free_energy=-27975.656959386928 dipole="-0.009637405521889677 -0.08393037849850135 0.09358744189540906" pbc="F F F"
Xe       0.01778000      -0.04694000       0.06836000      -0.13932403      -0.20042085       0.17551622
F       -0.05720000      -0.01809000       1.95510000       0.08906554       0.11610496       0.45154843
F        1.84150000      -0.02962000      -0.75442000       0.15266893       0.11107346      -0.12176031
F       -1.55674000       1.20368000       0.26802000      -0.06840163       0.09183601      -0.26462546
F       -0.26931000      -1.09473000      -1.63532000      -0.11393114       0.18083969      -0.19469660
F       -1.45292000      -1.20858000       0.47632000      -0.37082767      -0.15877324      -0.06037856
F        0.89536000       1.65787000       0.64205000       0.11337779       0.17742536      -0.06662613
F        0.85758000      -1.65240000       0.60206000       0.33737226      -0.31808539       0.08102241
5
Properties=species:S:1:pos:R:3:forces:R:3 dipole_x_D=-4.5e-07 dipole_y_D=1.75e-07 dipole_z_D=-6e-09 dipole_mag_D=4.828674766434368e-07 dipole_x_eA=-9.3687453e-08 dipole_y_eA=3.64340095e-08 dipole_z_eA=-1.24916604e-09 status_dipole=OK Q_xx_B=-82.655276182 Q_yy_B=-82.655274886 Q_zz_B=-76.918891909 Q_xy_B=-2.58e-07 Q_xz_B=-5.05e-07 Q_yz_B=2e-08 Q_isotropic_B=-80.743147659 Q_xx_eAA=-17.208360093642277 Q_yy_eAA=-17.208359823822423 Q_zz_eAA=-16.014077396093352 Q_xy_eAA=-5.3714137914e-08 Q_xz_eAA=-1.0513813816500002e-07 Q_yz_eAA=4.16388666e-09 Q_isotropic_eAA=-16.810265771186018 status_quadrupole=OK total_charge_e=0 multiplicity=1 natoms=5 geom_sha1=77cc0fb6bdcb61a00e271d1461677f72ee640f06 R_cog_x=0.0 R_cog_y=0.0 R_cog_z=0.0 R_com_x=0.0 R_com_y=0.0 R_com_z=0.0 R_cnc_x=0.0 R_cnc_y=0.0 R_cnc_z=0.0 status_eigs=OK spin_case=RKS homo_eV=-10.9306 lumo_eV=-2.8672 gap_eV=8.0634 n_orb_a=243 n_orb_b=0 argonne_rel=noble_gas_compounds/XeCl4_step2_0_1/ data_id=orca.tar.zst energy=-59046.05847447991 free_energy=-59046.05847447991 dipole="-2.381297447537285e-07 9.26060118486722e-08 -3.1750632633830467e-09" pbc="F F F"
Xe      -0.00000000       0.00000000       0.00000000       0.00000041      -0.00000036       0.00000057
Cl       2.42266000       0.00000000       0.00000000       0.21086565       0.00000036      -0.00000062
Cl       0.00000000       2.42266000       0.00000000       0.00000031       0.21086724      -0.00000046
Cl      -2.42266000      -0.00000000       0.00000000      -0.21086585      -0.00000036       0.00000062
Cl       0.00000000      -2.42266000       0.00000000      -0.00000051      -0.21086693      -0.00000015
4
Properties=species:S:1:pos:R:3:forces:R:3 dipole_x_D=-1.369982236 dipole_y_D=-0.322725545 dipole_z_D=-0.32973991 dipole_mag_D=1.4455903681879991 dipole_x_eA=-0.28522254743574427 dipole_y_eA=-0.0671896318424153 dipole_z_eA=-0.06864998293410941 status_dipole=OK Q_xx_B=-39.31093696 Q_yy_B=-32.769478455 Q_zz_B=-32.721378495 Q_xy_B=-2.343968942 Q_xz_B=-2.394919399 Q_yz_B=1.117688056 Q_isotropic_B=-34.93393130333334 Q_xx_eAA=-8.184314299992248 Q_yy_eAA=-6.822419709696596 Q_zz_eAA=-6.81240557060707 Q_xy_eAA=-0.4880010504524057 Q_xz_eAA=-0.4986086468635659 Q_yz_eAA=0.23269631932098667 Q_isotropic_eAA=-7.273046526765305 status_quadrupole=OK total_charge_e=0 multiplicity=1 natoms=4 geom_sha1=b6706cf3ac1154ba541826f458386085191276e8 R_cog_x=0.825115 R_cog_y=-0.1582425 R_cog_z=-0.16168249999999998 R_com_x=0.31014786207035117 R_com_y=-0.02001048168885793 R_com_z=-0.020439836780346665 R_cnc_x=0.35636140625 R_cnc_y=-0.02519578125 R_cnc_z=-0.025738125 status_eigs=OK spin_case=RKS homo_eV=-9.3323 lumo_eV=0.3977 gap_eV=9.73 n_orb_a=117 n_orb_b=0 argonne_rel=noble_gas_compounds/HXeOH_step10_0_1/ data_id=orca.tar.zst energy=-11037.357586238646 free_energy=-11037.357586238646 dipole="-0.7249633781684939 -0.1707790036807954 -0.17449084578537205" pbc="F F F"
Xe       0.07185000      -0.01501000      -0.01533000      -0.01883755      -0.00336413      -0.00348035
O        2.24266000      -0.02629000      -0.02686000       0.00931248       0.00296448       0.00302830
H       -1.62220000       0.05819000       0.05945000       0.01217047       0.00115263       0.00120179
H        2.60815000      -0.64986000      -0.66399000      -0.00264541      -0.00075297      -0.00074973
8
Properties=species:S:1:pos:R:3:forces:R:3 dipole_x_D=-0.088769273 dipole_y_D=-0.271930228 dipole_z_D=0.269078019 dipole_mag_D=0.3927200186367444 dipole_x_eA=-0.01848126020451482 dipole_y_eA=-0.05661433434450952 dipole_z_eA=0.05602052057421246 status_dipole=OK Q_xx_B=-77.925058374 Q_yy_B=-76.853990496 Q_zz_B=-74.254510312 Q_xy_B=-0.903436071 Q_xz_B=1.575053212 Q_yz_B=-2.757309609 Q_isotropic_B=-76.34451972733332 Q_xx_eAA=-16.223555552160995 Q_yy_eAA=-16.000565289703058 Q_zz_eAA=-15.459368246648461 Q_xy_eAA=-0.18809027020998564 Q_xz_eAA=0.32791715291184764 Q_yz_eAA=-0.5740562349202458 Q_isotropic_eAA=-15.894496362837502 status_quadrupole=OK total_charge_e=-1 multiplicity=1 natoms=8 geom_sha1=a554a8b3abb93f573cdfbd96bd23b58c879ba9a4 R_cog_x=0.03450625000000001 R_cog_y=-0.14860125 R_cog_z=0.20277125000000001 R_com_x=0.03650914468095918 R_com_y=-0.12506099671047685 R_com_z=0.1756108083929436 R_cnc_x=0.036319230769230784 R_cnc_y=-0.1272930769230769 R_cnc_z=0.17818615384615388 status_eigs=OK spin_case=RKS homo_eV=-6.82 lumo_eV=2.5261 gap_eV=9.3461 n_orb_a=339 n_orb_b=0 argonne_rel=noble_gas_compounds/XeF7-_step4_-1_1/ data_id=orca.tar.zst energy=-27975.80154489747 free_energy=-27975.80154489747 dipole="-0.0469746762699201 -0.14389927952102932 0.14238995551846426" pbc="F F F"
Xe       0.03922000      -0.09320000       0.13885000      -0.04763504       0.18587864      -0.24749549
F       -0.05166000      -0.00956000       2.05288000       0.02003851      -0.06784170       0.09415216
F        1.83844000      -0.02768000      -0.78576000      -0.08322111      -0.00625385       0.03408044
F       -1.52809000       1.17555000       0.08907000       0.17679061      -0.24061599      -0.18909195
F       -0.34669000      -0.93112000      -1.65533000      -0.10459742       0.25931876       0.22716176
F       -1.46791000      -1.25375000       0.52361000       0.06407498       0.01013318       0.01208547
F        0.88069000       1.68041000       0.63083000      -0.04351695      -0.07454914      -0.02566578
F        0.91205000      -1.72946000       0.62802000       0.01806647      -0.06606995       0.09477339
14